
     Program PWSCF v.6.4.1 starts on  8Feb2023 at 15:30:58 

     This program is part of the open-source Quantum ESPRESSO suite
     for quantum simulation of materials; please cite
         "P. Giannozzi et al., J. Phys.:Condens. Matter 21 395502 (2009);
         "P. Giannozzi et al., J. Phys.:Condens. Matter 29 465901 (2017);
          URL http://www.quantum-espresso.org", 
     in publications or presentations arising from this work. More details at
     http://www.quantum-espresso.org/quote

     Parallel version (MPI), running on     1 processors

     MPI processes distributed on     1 nodes
     Reading input from /home/admin/qe_test/example2.graphene/pw.graphene.bands.in

     Current dimensions of program PWSCF are:
     Max number of different atomic species (ntypx) = 10
     Max number of k-points (npk) =  40000
     Max angular momentum in pseudopotentials (lmaxx) =  3

     Atomic positions and unit cell read from directory:
     ./Graphene_1x1_PBE.save/

               file C.pbe-rrkjus.UPF: wavefunction(s)  2S 2P renormalized

     Subspace diagonalization in iterative solution of the eigenvalue problem:
     a serial algorithm will be used


     G-vector sticks info
     --------------------
     sticks:   dense  smooth     PW     G-vecs:    dense   smooth      PW
     Sum         301     121     37                12531     3147     647



     bravais-lattice index     =            4
     lattice parameter (alat)  =       4.6540  a.u.
     unit-cell volume          =     261.8973 (a.u.)^3
     number of atoms/cell      =            2
     number of atomic types    =            1
     number of electrons       =         8.00
     number of Kohn-Sham states=            8
     kinetic-energy cutoff     =      20.0000  Ry
     charge density cutoff     =     200.0000  Ry
     Exchange-correlation      =  SLA  PW   PBE  PBE ( 1  4  3  4 0 0)

     celldm(1)=   4.654000  celldm(2)=   0.000000  celldm(3)=   3.000000
     celldm(4)=   0.000000  celldm(5)=   0.000000  celldm(6)=   0.000000

     crystal axes: (cart. coord. in units of alat)
               a(1) = (   1.000000   0.000000   0.000000 )  
               a(2) = (  -0.500000   0.866025   0.000000 )  
               a(3) = (   0.000000   0.000000   3.000000 )  

     reciprocal axes: (cart. coord. in units 2 pi/alat)
               b(1) = (  1.000000  0.577350 -0.000000 )  
               b(2) = (  0.000000  1.154701  0.000000 )  
               b(3) = (  0.000000 -0.000000  0.333333 )  


     PseudoPot. # 1 for C  read from file:
     /home/admin/qe_test/example2.graphene/pseudo/C.pbe-rrkjus.UPF
     MD5 check sum: 00fb224312de0c5b6853bd333518df6f
     Pseudo is Ultrasoft, Zval =  4.0
     Generated by new atomic code, or converted to UPF format
     Using radial grid of  627 points,  4 beta functions with: 
                l(1) =   0
                l(2) =   0
                l(3) =   1
                l(4) =   1
     Q(r) pseudized with 0 coefficients 


     atomic species   valence    mass     pseudopotential
        C              4.00    12.01070     C ( 1.00)

     24 Sym. Ops., with inversion, found (12 have fractional translation)



   Cartesian axes

     site n.     atom                  positions (alat units)
         1           C   tau(   1) = (   0.0000000   0.0000000   0.0000000  )
         2           C   tau(   2) = (   0.0000000   0.5773503   0.0000000  )

     number of k points=    48 (tetrahedron method)
                       cart. coord. in units 2pi/alat
        k(    1) = (   0.0000000   0.0000000   0.0000000), wk =   0.0416667
        k(    2) = (   0.0166667   0.0288675   0.0000000), wk =   0.0416667
        k(    3) = (   0.0333333   0.0577350   0.0000000), wk =   0.0416667
        k(    4) = (   0.0500000   0.0866025   0.0000000), wk =   0.0416667
        k(    5) = (   0.0666667   0.1154701   0.0000000), wk =   0.0416667
        k(    6) = (   0.0833333   0.1443376   0.0000000), wk =   0.0416667
        k(    7) = (   0.1000000   0.1732051   0.0000000), wk =   0.0416667
        k(    8) = (   0.1166667   0.2020726   0.0000000), wk =   0.0416667
        k(    9) = (   0.1333333   0.2309401   0.0000000), wk =   0.0416667
        k(   10) = (   0.1500000   0.2598076   0.0000000), wk =   0.0416667
        k(   11) = (   0.1666667   0.2886751   0.0000000), wk =   0.0416667
        k(   12) = (   0.1833333   0.3175426   0.0000000), wk =   0.0416667
        k(   13) = (   0.2000000   0.3464102   0.0000000), wk =   0.0416667
        k(   14) = (   0.2166667   0.3752777   0.0000000), wk =   0.0416667
        k(   15) = (   0.2333333   0.4041452   0.0000000), wk =   0.0416667
        k(   16) = (   0.2500000   0.4330127   0.0000000), wk =   0.0416667
        k(   17) = (   0.2666667   0.4618802   0.0000000), wk =   0.0416667
        k(   18) = (   0.2833333   0.4907477   0.0000000), wk =   0.0416667
        k(   19) = (   0.3000000   0.5196152   0.0000000), wk =   0.0416667
        k(   20) = (   0.3166667   0.5484828   0.0000000), wk =   0.0416667
        k(   21) = (   0.3333333   0.5773503   0.0000000), wk =   0.0416667
        k(   22) = (   0.3000000   0.5773503   0.0000000), wk =   0.0416667
        k(   23) = (   0.2666667   0.5773503   0.0000000), wk =   0.0416667
        k(   24) = (   0.2333333   0.5773503   0.0000000), wk =   0.0416667
        k(   25) = (   0.2000000   0.5773503   0.0000000), wk =   0.0416667
        k(   26) = (   0.1666667   0.5773503   0.0000000), wk =   0.0416667
        k(   27) = (   0.1333333   0.5773503   0.0000000), wk =   0.0416667
        k(   28) = (   0.1000000   0.5773503   0.0000000), wk =   0.0416667
        k(   29) = (   0.0666667   0.5773503   0.0000000), wk =   0.0416667
        k(   30) = (   0.0333333   0.5773503   0.0000000), wk =   0.0416667
        k(   31) = (   0.0000000   0.5773503   0.0000000), wk =   0.0416667
        k(   32) = (   0.0000000   0.5433885   0.0000000), wk =   0.0416667
        k(   33) = (   0.0000000   0.5094267   0.0000000), wk =   0.0416667
        k(   34) = (   0.0000000   0.4754649   0.0000000), wk =   0.0416667
        k(   35) = (   0.0000000   0.4415031   0.0000000), wk =   0.0416667
        k(   36) = (   0.0000000   0.4075414   0.0000000), wk =   0.0416667
        k(   37) = (   0.0000000   0.3735796   0.0000000), wk =   0.0416667
        k(   38) = (   0.0000000   0.3396178   0.0000000), wk =   0.0416667
        k(   39) = (   0.0000000   0.3056560   0.0000000), wk =   0.0416667
        k(   40) = (   0.0000000   0.2716942   0.0000000), wk =   0.0416667
        k(   41) = (   0.0000000   0.2377325   0.0000000), wk =   0.0416667
        k(   42) = (   0.0000000   0.2037707   0.0000000), wk =   0.0416667
        k(   43) = (   0.0000000   0.1698089   0.0000000), wk =   0.0416667
        k(   44) = (   0.0000000   0.1358471   0.0000000), wk =   0.0416667
        k(   45) = (   0.0000000   0.1018853   0.0000000), wk =   0.0416667
        k(   46) = (   0.0000000   0.0679236   0.0000000), wk =   0.0416667
        k(   47) = (   0.0000000   0.0339618   0.0000000), wk =   0.0416667
        k(   48) = (   0.0000000   0.0000000   0.0000000), wk =   0.0416667

     Dense  grid:    12531 G-vectors     FFT dimensions: (  24,  24,  64)

     Smooth grid:     3147 G-vectors     FFT dimensions: (  15,  15,  40)

     Estimated max dynamical RAM per process >      13.13 MB

     The potential is recalculated from file :
     ./Graphene_1x1_PBE.save/charge-density


     negative rho (up, down):  3.199E-06 0.000E+00
     Starting wfcs are    8 randomized atomic wfcs

     Band Structure Calculation
     Davidson diagonalization with overlap

     ethr =  1.25E-10,  avg # of iterations = 17.5

     total cpu time spent up to now is        1.0 secs

     End of band structure calculation

          k = 0.0000 0.0000 0.0000 (   397 PWs)   bands (ev):

   -18.6680  -6.7213  -2.1511  -2.1511   3.7660   7.1331   9.2548   9.2548

          k = 0.0167 0.0289 0.0000 (   401 PWs)   bands (ev):

   -18.6483  -6.6981  -2.2492  -2.1961   3.7928   7.1588   9.2474   9.3386

          k = 0.0333 0.0577 0.0000 (   403 PWs)   bands (ev):

   -18.5894  -6.6307  -2.4897  -2.3332   3.8733   7.2348   9.2565   9.5448

          k = 0.0500 0.0866 0.0000 (   411 PWs)   bands (ev):

   -18.4913  -6.5216  -2.8565  -2.5592   4.0076   7.3604   9.3047   9.6941

          k = 0.0667 0.1155 0.0000 (   407 PWs)   bands (ev):

   -18.3534  -6.3575  -3.3107  -2.8425   4.1956   7.5394   9.4018   9.8912

          k = 0.0833 0.1443 0.0000 (   403 PWs)   bands (ev):

   -18.1766  -6.1472  -3.8426  -3.1866   4.4374   7.7687   9.5454  10.1341

          k = 0.1000 0.1732 0.0000 (   409 PWs)   bands (ev):

   -17.9609  -5.8925  -4.4309  -3.5969   4.7326   8.0470   9.7117  10.1695

          k = 0.1167 0.2021 0.0000 (   409 PWs)   bands (ev):

   -17.7071  -5.5928  -5.0420  -4.0454   5.0817   8.3737   9.4994   9.9345

          k = 0.1333 0.2309 0.0000 (   407 PWs)   bands (ev):

   -17.4147  -5.6541  -5.2502  -4.5298   5.4841   8.7466   8.7906  10.2057

          k = 0.1500 0.2598 0.0000 (   395 PWs)   bands (ev):

   -17.0844  -6.2705  -5.0199  -4.8616   5.9400   8.0708   9.1642  10.5425

          k = 0.1667 0.2887 0.0000 (   399 PWs)   bands (ev):

   -16.7184  -6.8928  -5.5511  -4.4383   6.4489   7.3167   9.6189  10.8978

          k = 0.1833 0.3175 0.0000 (   397 PWs)   bands (ev):

   -16.3150  -7.4911  -6.0782  -3.9732   6.5719   7.0104  10.1060  11.3041

          k = 0.2000 0.3464 0.0000 (   391 PWs)   bands (ev):

   -15.8776  -8.0668  -6.5996  -3.4769   5.8402   7.6240  10.6101  11.7380

          k = 0.2167 0.3753 0.0000 (   399 PWs)   bands (ev):

   -15.4080  -8.6319  -7.1188  -2.9543   5.0973   8.2887  11.1050  12.1899

          k = 0.2333 0.4041 0.0000 (   395 PWs)   bands (ev):

   -14.9071  -9.1631  -7.6144  -2.4031   4.4084   9.0034  11.5461  12.6660

          k = 0.2500 0.4330 0.0000 (   391 PWs)   bands (ev):

   -14.3779  -9.6654  -8.0834  -1.8350   3.7388   9.7658  11.8526  13.1524

          k = 0.2667 0.4619 0.0000 (   395 PWs)   bands (ev):

   -13.8271 -10.1417  -8.5366  -1.2589   3.1002  10.5712  11.9563  13.5926

          k = 0.2833 0.4907 0.0000 (   395 PWs)   bands (ev):

   -13.2603 -10.5866  -8.9489  -0.6817   2.4966  11.4128  11.8887  13.8455

          k = 0.3000 0.5196 0.0000 (   389 PWs)   bands (ev):

   -12.6915 -10.9989  -9.2979  -0.1130   1.9305  11.7504  12.2720  13.9024

          k = 0.3167 0.5485 0.0000 (   383 PWs)   bands (ev):

   -12.1584 -11.3793  -9.5629   0.4237   1.4058  11.6319  13.0919  13.8397

          k = 0.3333 0.5774 0.0000 (   381 PWs)   bands (ev):

   -11.7301 -11.7301  -9.6762   0.9203   0.9203  11.5853  13.6508  13.6508

          k = 0.3000 0.5774 0.0000 (   382 PWs)   bands (ev):

   -12.0482 -11.5182  -9.5333   0.4778   1.3531  11.6388  13.3842  13.5632

          k = 0.2667 0.5774 0.0000 (   396 PWs)   bands (ev):

   -12.3394 -11.5333  -9.1406   0.0636   1.7064  11.8035  13.0808  13.2222

          k = 0.2333 0.5774 0.0000 (   398 PWs)   bands (ev):

   -12.5914 -11.6606  -8.5910  -0.2905   1.9935  12.0758  12.6198  12.7822

          k = 0.2000 0.5774 0.0000 (   394 PWs)   bands (ev):

   -12.8100 -11.8206  -7.9808  -0.5897   2.2112  11.7508  12.4333  12.5042

          k = 0.1667 0.5774 0.0000 (   390 PWs)   bands (ev):

   -12.9948 -11.9778  -7.3658  -0.8506   2.3640  10.8631  12.2591  12.4407

          k = 0.1333 0.5774 0.0000 (   390 PWs)   bands (ev):

   -13.1466 -12.1167  -6.7897  -1.0657   2.4675  10.0290  12.0520  12.2188

          k = 0.1000 0.5774 0.0000 (   388 PWs)   bands (ev):

   -13.2648 -12.2290  -6.2859  -1.2272   2.5345   9.3188  11.8881  12.0451

          k = 0.0667 0.5774 0.0000 (   392 PWs)   bands (ev):

   -13.3491 -12.3119  -5.8920  -1.3475   2.5710   8.7656  11.7696  11.9200

          k = 0.0333 0.5774 0.0000 (   388 PWs)   bands (ev):

   -13.3996 -12.3614  -5.6295  -1.4189   2.5901   8.4176  11.6984  11.8449

          k = 0.0000 0.5774 0.0000 (   390 PWs)   bands (ev):

   -13.4158 -12.3790  -5.5474  -1.4434   2.6002   8.2920  11.6747  11.8196

          k = 0.0000 0.5434 0.0000 (   396 PWs)   bands (ev):

   -13.7137 -12.0536  -5.5352  -1.5757   2.7572   8.3019  10.8526  12.6826

          k = 0.0000 0.5094 0.0000 (   396 PWs)   bands (ev):

   -14.2333 -11.4427  -5.4744  -1.9162   3.1934   8.3320  10.0106  12.8986

          k = 0.0000 0.4755 0.0000 (   392 PWs)   bands (ev):

   -14.7689 -10.7554  -5.3691  -2.3716   3.8066   8.3806   9.2223  12.2149

          k = 0.0000 0.4415 0.0000 (   388 PWs)   bands (ev):

   -15.2849 -10.0208  -5.2291  -2.8714   4.5348   8.3589   8.5734  11.5538

          k = 0.0000 0.4075 0.0000 (   394 PWs)   bands (ev):

   -15.7713  -9.2696  -5.0586  -3.3852   5.3033   7.7592   8.5708  10.9276

          k = 0.0000 0.3736 0.0000 (   398 PWs)   bands (ev):

   -16.2271  -8.5007  -4.8466  -3.8901   6.1120   7.1281   8.6639  10.3405

          k = 0.0000 0.3396 0.0000 (   392 PWs)   bands (ev):

   -16.6439  -7.7180  -4.5984  -4.3585   6.5478   6.9384   8.7787   9.8035

          k = 0.0000 0.3057 0.0000 (   396 PWs)   bands (ev):

   -17.0245  -6.9440  -4.7940  -4.3296   6.0210   7.7436   8.9006   9.3215

          k = 0.0000 0.2717 0.0000 (   396 PWs)   bands (ev):

   -17.3663  -6.1662  -5.1903  -4.0353   5.5486   8.4555   8.9646   9.0183

          k = 0.0000 0.2377 0.0000 (   404 PWs)   bands (ev):

   -17.6706  -5.5462  -5.4190  -3.7207   5.1311   8.3981   9.1113   9.3929

          k = 0.0000 0.2038 0.0000 (   398 PWs)   bands (ev):

   -17.9338  -5.8558  -4.6727  -3.4044   4.7692   8.0791   9.2034  10.0940

          k = 0.0000 0.1698 0.0000 (   402 PWs)   bands (ev):

   -18.1578  -6.1207  -4.0026  -3.0939   4.4627   7.7933   9.2447  10.1278

          k = 0.0000 0.1358 0.0000 (   399 PWs)   bands (ev):

   -18.3411  -6.3385  -3.3919  -2.8007   4.2119   7.5562   9.2777   9.8903

          k = 0.0000 0.1019 0.0000 (   403 PWs)   bands (ev):

   -18.4843  -6.5087  -2.8974  -2.5320   4.0168   7.3706   9.2619   9.6972

          k = 0.0000 0.0679 0.0000 (   407 PWs)   bands (ev):

   -18.5865  -6.6317  -2.5066  -2.3374   3.8774   7.2373   9.2464   9.5477

          k = 0.0000 0.0340 0.0000 (   405 PWs)   bands (ev):

   -18.6476  -6.6977  -2.2616  -2.2069   3.7938   7.1596   9.2422   9.3377

          k = 0.0000 0.0000 0.0000 (   397 PWs)   bands (ev):

   -18.6680  -6.7213  -2.1511  -2.1511   3.7660   7.1331   9.2548   9.2548

     Writing output data file Graphene_1x1_PBE.save/

     init_run     :      0.08s CPU      0.08s WALL (       1 calls)
     electrons    :      0.80s CPU      0.82s WALL (       1 calls)

     Called by init_run:
     wfcinit      :      0.00s CPU      0.00s WALL (       1 calls)
     potinit      :      0.01s CPU      0.02s WALL (       1 calls)
     hinit0       :      0.05s CPU      0.05s WALL (       1 calls)

     Called by electrons:
     c_bands      :      0.80s CPU      0.82s WALL (       1 calls)
     v_of_rho     :      0.01s CPU      0.01s WALL (       1 calls)
     newd         :      0.01s CPU      0.01s WALL (       1 calls)

     Called by c_bands:
     init_us_2    :      0.00s CPU      0.00s WALL (      48 calls)
     cegterg      :      0.73s CPU      0.74s WALL (      59 calls)

     Called by sum_band:

     Called by *egterg:
     h_psi        :      0.50s CPU      0.51s WALL (     946 calls)
     s_psi        :      0.01s CPU      0.02s WALL (     946 calls)
     g_psi        :      0.01s CPU      0.01s WALL (     839 calls)
     cdiaghg      :      0.14s CPU      0.15s WALL (     887 calls)

     Called by h_psi:
     h_psi:pot    :      0.49s CPU      0.50s WALL (     946 calls)
     h_psi:calbec :      0.02s CPU      0.02s WALL (     946 calls)
     vloc_psi     :      0.46s CPU      0.47s WALL (     946 calls)
     add_vuspsi   :      0.02s CPU      0.02s WALL (     946 calls)

     General routines
     calbec       :      0.02s CPU      0.02s WALL (     946 calls)
     fft          :      0.01s CPU      0.01s WALL (      12 calls)
     ffts         :      0.00s CPU      0.00s WALL (       1 calls)
     fftw         :      0.33s CPU      0.34s WALL (    9470 calls)
     interpolate  :      0.00s CPU      0.00s WALL (       1 calls)
     davcio       :      0.00s CPU      0.00s WALL (      96 calls)

     Parallel routines

     PWSCF        :      0.95s CPU      0.99s WALL


   This run was terminated on:  15:30:59   8Feb2023            

=------------------------------------------------------------------------------=
   JOB DONE.
=------------------------------------------------------------------------------=
